% Model:              Plate.mph
% Version:            COMSOL 6.3.0.290
% Date:               Mar 21 2025, 10:19
% Dimension:          2
% Nodes:              10203
% Expressions:        5
% 
% Length unit:        m
% X                       Y                        plate.disp (m)           d(plate.disp,x) (1)      d(d(plate.disp,x),x) (1/m) d(d(d(plate.disp,x),x),x) (1/m^2) d(d(d(d(plate.disp,x),x),x),x) (1/m^3)
0                         0                        1.6320047557230028E-7    1.9188284583571298E-5    0.004417498620150494       0.49212820323241413               -134.55933919274355
0.010000000000000009      0                        6.101411981765462E-7     6.268357921660419E-5     0.0029300202253524288      -0.07293839032040358              22.108081352485996
0                         0.009999999999999993     6.101190449450195E-7     3.3530270094593535E-6    0.09034392710382265        -0.8565269393593371               -39884.22003827605
0.010000000000000009      0.009999999999999898     2.4834818314057574E-6    2.3687777967642393E-4    0.0023756479389836207      -0.3286422249940266               144.16507512068253
0                         0.019999999999999987     1.180728661838438E-6     1.5024099220385544E-6    0.18657660684932723        -0.5213243414571316               -88327.84400361982
0.010000000000000009      0.01999999999999985      4.862564159885828E-6     4.5891296713745737E-4    0.00308247493799548        -0.7229009502917272               280.2780400949439
0.020000000000000018      0                        1.1809056417218E-6       5.8478313541065864E-5    1.7868584456168257E-4      -0.008848764406774588             1.7472918328755327
0.019999999999999962      0.009999999999999842     4.863110729919162E-6     2.397963298886533E-4     1.5166044978183859E-4      -0.02686652993530808              5.3495457481666975
0                         0.02999999999999998      1.7609120837844222E-6    9.701316892575536E-7     0.2804790512708737         -0.43192071264164766              -133946.44077422965
0.010000000000000009      0.02999999999999997      7.256137199540166E-6     6.833667890595494E-4     0.004168200836012728       -1.109536992462739                419.560944540268
0.019999999999999962      0.01999999999999985      9.504710822909296E-6     4.6737770894224437E-4    2.2615017504903825E-4      -0.05257228867004804              10.358448193327046
0.02999999999999997       0                        1.7615318282628532E-6    5.804944485428064E-5     -1.5239043431318987E-5     -0.0016468178482326665            0.21902858948327086
0.02999999999999997       0.009999999999999842     7.258416834174243E-6     2.3929235597851592E-4    -8.911958211127143E-5      -0.005488208904065983             0.7294174511648048
0                         0.03999999999999997      2.338867593977067E-6     7.128201214328396E-7     0.37344022498704427        -0.3915454827701441               -178820.60043283558
0.010000000000000009      0.03999999999999998      9.63917542059075E-6      9.072196849315921E-4     0.005351076876094204       -1.4890144760528834               558.1780187230736
0.019999999999999962      0.02999999999999997      1.4175589517234511E-5    6.963221964766073E-4     2.9498108396512797E-4      -0.07893242618019825              15.521729523547279
0.02999999999999997       0.019999999999999796     1.4178452584947757E-5    4.6706372714821055E-4    -1.5141972578311316E-4     -0.010681215667756677             1.416949813860267
0.03999999999999998       0                        2.340376009545959E-6     5.77242806846839E-5      -3.647361705772423E-5      -4.940920832939323E-4             0.04941817444556462
0.03999999999999995       0.009999999999999842     9.64502652555545E-6      2.3799783805556144E-4    -1.5172283789129798E-4     -0.0017466581178924717            0.17477847357814902
0                         0.04999999999999997      2.9125921625611462E-6    5.572366316567468E-7     0.46554362027673885        -0.3724815980764739               -223189.48842022324
0.010000000000000009      0.04999999999999993      1.2004659885116092E-5    0.001129569565877629     0.006565989237308396       -1.8631607088858075               695.6287180296874
0.019999999999999962      0.03999999999999998      1.8828640714258345E-5    9.24607460788749E-4      3.721603170791232E-4       -0.10518688100703977              20.672146486035054
0.02999999999999997       0.029999999999999916     2.114015177491146E-5     6.960454216826121E-4     -2.1362456538402078E-4     -0.015985682394111522             2.118891777304869
0.03999999999999998       0.019999999999999796     1.8837961212897718E-5    4.647505374707218E-4     -2.8183109430284046E-4     -0.003421529838182169             0.3421101502455266
0.04999999999999999       0                        2.9155929042732293E-6    5.731279924595757E-5     -4.488356361886752E-5      -2.0028970181151448E-4            0.016068675566021984
0.04999999999999996       0.009999999999999842     1.201657140349063E-5     2.3629353480470963E-4    -1.8565970951880256E-4     -7.176247659034865E-4             0.05759344091353058
0                         0.05999999999999997      3.481074539269936E-6     4.523914756610587E-7     0.5567211430887935         -0.3652162478119782               -267068.4825021392
0.010000000000000009      0.05999999999999989      1.4348473996993958E-5    0.0013499497611619102    0.0077902773414504495      -2.232562518618909                831.7278289976944
0.019999999999999962      0.04999999999999993      2.344882157537201E-5     0.001151422587627526     4.5878568366891637E-4      -0.13120559276331378              25.778912414290147
0.029999999999999943      0.03999999999999998      2.8076816001521755E-5    9.242758295641997E-4     -2.784040239307232E-4      -0.02128238830540996              2.8201948935367867
0.03999999999999995       0.029999999999999916     2.8085044950815374E-5    6.927879514890563E-4     -4.048505771254698E-4      -0.005117720893752398             0.511420402406749
0.04999999999999996       0.019999999999999796     2.3469466142286546E-5    4.615166770680292E-4     -3.550316344056821E-4      -0.0014116685037291882            0.11325732087011087
0.06                      0                        3.486328632888292E-6     5.683083285879556E-5     -5.113885886972409E-5      -9.670912084204335E-5             0.006479767576983597
0.06                      0.009999999999999842     1.4369583769404953E-5    2.343003954964526E-4     -2.1124816968673345E-4     -3.472607869842992E-4             0.02327364235922169
0                         0.06999999999999997      4.043526215597611E-6     3.766613404771838E-7     0.6468834642575796         -0.36484331544434634              -310433.8670191002
0.010000000000000009      0.06999999999999995      1.6667384175932313E-5    0.001568025255726162     0.009013465921692457       -2.597281769284548                966.3249289229925
0.019999999999999962      0.05999999999999989      2.8027403342464227E-5    0.0013762784327618276    5.524839071673684E-4       -0.15695149682072818              30.833026015777335
0.02999999999999997       0.04999999999999993      3.496602423787871E-5     0.001151065648961415     -3.3974904943542134E-4     -0.0265393203118518               3.5164715953890067
0.03999999999999995       0.03999999999999998      3.7299559694879164E-5    9.200749241665019E-4     -5.253772155181125E-4      -0.006807511893175855             0.6800943229162879
0.04999999999999996       0.029999999999999916     3.4989749945459994E-5    6.88100751734072E-4      -5.180297555700216E-4      -0.0021131816333725684            0.16948628603195903
0.06                      0.019999999999999796     2.8065507385068767E-5    4.5767594281577516E-4    -4.0820452797967724E-4     -6.845149780049242E-4             0.04587130179260601
0.07                      0                        4.051951567519712E-6     5.62916988793743E-5      -5.639082348323751E-5      -5.2383575718237436E-5            0.003014498142094063
0.07                      0.009999999999999842     1.670147689346419E-5     2.3207378124810263E-4    -2.3274061029817132E-4     -1.881767485510978E-4             0.010831260175087953
0                         0.07999999999999995      4.599263807144089E-6     3.1918418734974067E-7    0.7359393899099662         -0.3686388936981876               -353251.36257459945
0.010000000000000009      0.08000000000000002      1.8958586876579998E-5    0.0017835180472731578    0.010229677210479952       -2.957171439972046                1099.2783775354023
0.019999999999999962      0.06999999999999995      3.25577644180824E-5      0.0015988176974557277    6.510380290982165E-4       -0.18240117990814086              35.82929658921631
0.02999999999999997       0.05999999999999989      4.179431445667441E-5     0.001375954038806549     -3.9542866969802595E-4     -0.03174320570047273              4.205805797416538
0.03999999999999995       0.04999999999999993      4.6452310593782134E-5    0.0011459438808554554    -6.424563971372237E-4      -0.008485841644936487             0.84766088189998
0.04999999999999996       0.03999999999999998      4.647021305371853E-5     9.139842895249321E-4     -6.757321015618337E-4      -0.00280989994158809              0.22532097390684935
0.06                      0.029999999999999916     4.184269998563993E-5     6.824660306648471E-4     -6.006902888914495E-4      -0.0010256919962468303            0.06872521795822628
0.07                      0.019999999999999796     3.2620728059371156E-5    4.533600550171042E-4     -4.517167913530445E-4      -3.713256873966661E-4             0.021372932098376873
0.08000000000000002       0                        4.611934621471182E-6     5.570358713581453E-5     -6.097561426784086E-5      -3.083586226564506E-5             0.0015557102318917299
0.08000000000000002       0.009999999999999842     1.901009166734527E-5     2.2964664860375953E-4    -2.5153856016894936E-4     -1.1078899304201376E-4            0.005590443192970473
0                         0.08999999999999993      5.147672557118261E-6     2.7392037489283354E-7    0.823800614214981          -0.3750194530981207               -395483.85751182353
0.010000000000000009      0.08999999999999991      2.121955716683738E-5     0.001996183006055407     0.011435108316852918       -3.31199977353909                 1230.4536353463682
0.019999999999999962      0.08000000000000002      3.703428048199379E-5     0.0018187471456019213    7.528444647941605E-4       -0.20753211176658626              40.763078657145144
0.02999999999999997       0.06999999999999995      4.855147369171469E-5     0.0015985799496862595    -4.453303250101376E-4      -0.036887201842292106             4.887212278690519
0.03999999999999995       0.05999999999999989      5.5525365596627E-5       0.0013699596042781135    -7.544590102170207E-4      -0.0101482953166257               1.0136659382345563
0.04999999999999996       0.04999999999999993      5.78749428243071E-5      0.001138492707788326     -8.285224363656241E-4      -0.0035013774803862308            0.2807390301546704
0.06                      0.03999999999999998      5.557336818196915E-5     9.066153107163417E-4     -7.874560124774511E-4      -0.0013640088179995846            0.09138437807245925
0.07                      0.029999999999999916     4.863557094506416E-5     6.760962513032449E-4     -6.677622082079467E-4      -5.568443801871464E-4             0.03205040744433374
0.08000000000000002       0.019999999999999796     3.713076382149093E-5     4.4864247876408124E-4    -4.892635377630392E-4      -2.187499260446618E-4             0.011038735628921825
0.09000000000000002       0                        5.165818670941795E-6     5.507230744563311E-5     -6.505391146277784E-5      -1.9341417491499247E-5            8.690365732397232E-4
0.09000000000000005       0.009999999999999842     2.1293544849213226E-5    2.2704244777567927E-4    -2.682863819173126E-4      -6.949785735883493E-5             0.0031231058916674215
0                         0.09999999999999994      5.688189553634498E-6     2.3724802620434545E-7    0.9103831231237202         -0.38302133359371837              -437094.20444735716
0.010000000000000009      0.09999999999999987      2.3447980587379526E-5    0.0022057978969109984    0.01262702305765552        -3.661502846739987                1359.7236027399454
0.019999999999999962      0.08999999999999991      4.145193796656175E-5     0.0020358107714625257    8.567737736025552E-4       -0.23232161347156755              45.629829604531594
0.02999999999999997       0.08000000000000002      5.5228897451112144E-5    0.0018186406654066433    -4.899993729281845E-4      -0.04196626049311819              5.55999101373196
0.03999999999999995       0.06999999999999995      6.450494812084182E-5     0.0015917699559978198    -8.60651058379739E-4       -0.011791945622952382             1.1778003253020053
0.04999999999999996       0.05999999999999989      6.918169564555387E-5     0.0013611987590593736    -9.758707681807432E-4      -0.004186465033908515             0.33565025424664086
0.06                      0.04999999999999993      6.921483223636617E-5     0.0011294455098997931    -9.684937614082602E-4      -0.0016993909365673743            0.11384696887698453
0.07                      0.03999999999999998      6.459776321794246E-5     8.982477906924159E-4     -8.78532711974714E-4       -7.407458134034151E-4             0.04263459551610804
0.08000000000000002       0.029999999999999916     5.536163995836391E-5     6.691108181374511E-4     -7.251620543939838E-4      -3.2822856708061843E-4            0.01656419622456684
0.09000000000000005       0.019999999999999796     4.159185569103723E-5     4.435730931559246E-4     -5.224821026988792E-4      -1.3727228723050405E-4            0.006169292746492305
0.10000000000000003       0                        5.713195698369726E-6     5.440243166364801E-5     -6.871811901271101E-5      -1.2754998325382669E-5            5.167623573195945E-4
0.10000000000000006       0.009999999999999842     2.355016061912726E-5     2.2427971167698175E-4    -2.833505930488029E-4      -4.58347447614086E-5              0.001857216717484289
0                         0.10999999999999993      6.220294284156513E-6     2.068626214357937E-7     0.9956075159246203         -0.39203373714310047              -478046.3310554492
0.010000000000000009      0.10999999999999988      2.5641715319057165E-5    0.002412158335347817     0.01380329481246273        -4.005408171823185                1486.9686155026127
0.019999999999999962      0.09999999999999976      4.580616542202388E-5     0.0022497778866633006    9.620047216508838E-4       -0.256747380631805                50.425132310823756
0.029999999999999943      0.08999999999999991      6.181896834025376E-5     0.0020358714665824657    -5.300812980960079E-4      -0.04697578921944978              6.223523838534575
0.03999999999999995       0.08000000000000002      7.337942272413712E-5     0.0018110715016287908    -9.609852001933195E-4      -0.013414790381214126             1.3398534793943195
0.04999999999999996       0.06999999999999995      8.037321014499385E-5     0.0015817573238944291    -0.0011172586135465082     -0.004863962704181601             0.38995579563054505
0.06                      0.05999999999999989      8.274058191051852E-5     0.001350530795258012     -0.0011436055934271518     -0.0020315647439957674            0.136095902172916
0.07                      0.04999999999999993      8.045785904249003E-5     0.0011191398244602786    -0.0010834537992343886     -9.229055258777735E-4             0.05311884929083366
0.08000000000000002       0.03999999999999998      7.353426747428574E-5     8.890441524593313E-4     -9.564070834273044E-4      -4.367796124417206E-4             0.02204343850790047
0.09000000000000005       0.029999999999999916     6.20151631250228E-5      6.6158973326966E-4       -7.756524925801925E-4      -2.0605774423094678E-4            0.009261587089745338
0.10000000000000006       0.019999999999999796     4.600068081818471E-5     4.3819014041446616E-4    -5.522466555453589E-4      -9.055457640814481E-5             0.003669656181465586
0.11000000000000004       0                        6.253699280337078E-6     5.36977792904073E-5      -7.20285274692517E-5       -8.759659492344092E-6             3.2322929328495315E-4
0.11000000000000007       0.009999999999999842     2.5778432472100154E-5    2.213739863742392E-4     -2.9697105191957057E-4     -3.147949651587274E-5             0.0011617231422960117
0                         0.11999999999999991      6.743502552883823E-6     1.8122685899177328E-7    1.0793989386043432         -0.4016560945524076               -518305.68286511424
0.010000000000000009      0.12                     2.7798767867583134E-5    0.0026150748048258516    0.014962177894304464       -4.343445741003451                1612.0761391076194
0.019999999999999962      0.10999999999999976      5.009274464121283E-5     0.002460437082551048     0.0010679126310388053      -0.28078789489347655              55.14474658099715
0.02999999999999997       0.09999999999999976      6.831477274522478E-5     0.0022500346514988463    -5.661609415778257E-4      -0.05191137522614098              6.877225219730953
0.03999999999999995       0.08999999999999991      8.213850341608344E-5     0.002027595346415276     -0.0010557357593483988     -0.015015231427939424             1.4996605691656786
0.04999999999999996       0.08000000000000002      9.14348284083226E-5      0.0017998672305015598    -0.001252481602720906      -0.005532925568156544             0.4435768649615115
0.06                      0.06999999999999995      9.612992161527325E-5     0.001569529422971473     -0.0013124994042227958     -0.0023600622503685276            0.15809954842807006
0.07                      0.05999999999999989      9.618509806789215E-5     0.0013383483063570112    -0.0012822281699326043     -0.0011032307937636765            0.06349812072010597
0.08000000000000002       0.04999999999999993      9.159249379555939E-5     0.0011077759702857572    -0.0011820417631809473     -5.442672009028093E-4             0.027469587099017367
0.09000000000000005       0.03999999999999998      8.237508867913033E-5     8.791147170867771E-4     -0.0010247513511667953     -2.7429110449845445E-4            0.012329746102716754
0.10000000000000006       0.029999999999999916     6.859109130925122E-5     6.535932942707367E-4     -8.207223747493117E-4      -1.3597051086366302E-4            0.0055108510308324865
0.11000000000000007       0.019999999999999796     5.0354263068030134E-5    4.325251137601454E-4     -5.790980054374227E-4      -6.220354645933637E-5             0.002295853319487867
0.12000000000000005       0                        6.786998446190856E-6     5.296165785080051E-5     -7.50282576487561E-5       -6.220804681416475E-6             2.108005363637977E-4
0.12000000000000008       0.009999999999999842     2.7976998660234377E-5    2.183387789379946E-4     -3.093202584210286E-4      -2.2356882047965335E-5            7.576759501805586E-4
0                         0.1299999999999999       7.257362171003288E-6     1.5927507164578212E-7    1.1616868789901589         -0.41161825988780676              -557839.3793974875
0.010000000000000009      0.1299999999999999       2.9917275782596153E-5    0.002814370673508764     0.01610218350418896        -4.675353307114252                1734.9403468803562
0.019999999999999962      0.11999999999999983      5.4307756254868875E-5    0.0026675927467611845    0.0011740017528945393      -0.3044226179069187               59.78463529522321
0.029999999999999943      0.10999999999999976      7.470995026750506E-5     0.0024609132519816954    -5.987338392400218E-4      -0.056768765751439965             7.5205342333870675
0.03999999999999998       0.09999999999999976      9.077287483315881E-5     0.002241098926228851     -0.001145284784701793      -0.01659184166907779              1.6570770720858334
0.04999999999999996       0.08999999999999991      1.0235356981498042E-4    0.0020152584421283238    -0.0013816009886585962     -0.006192612108911116             0.4964518851706785
0.06                      0.08000000000000002      1.0936519242447267E-4    0.0017861423045681013    -0.0014749867534533823     -0.0026844311591354697            0.17982676119968755
0.07                      0.06999999999999995      1.1175537778778531E-4    0.0015555336504751896    -0.0014746040141939473     -0.0012815246979971107            0.07376099931456448
0.08000000000000002       0.05999999999999989      1.0950133769800456E-4    0.0013248861906236308    -0.0014015720462883727     -6.506301399723663E-4             0.032839520168262304
0.09000000000000005       0.04999999999999993      1.0260887016561325E-4    0.001095492612333461     -0.0012686104452332174     -3.418567287779145E-4             0.015368497395532366
0.10000000000000006       0.03999999999999998      9.111339301842983E-5     8.685427269872284E-4     -0.0010856235695791408     -1.8104371513582435E-4            0.00733873397817697
0.11000000000000007       0.029999999999999916     7.508491876512075E-5     6.451704574279393E-4     -8.612806592847501E-4      -9.342104150956293E-5             0.003448606923460662
0.12000000000000008       0.019999999999999796     5.464991813786344E-5     4.2660507369118996E-4    -6.034091613254688E-4      -4.418255308710067E-5             0.00149755326464443
0.13                      0                        7.3127933178470566E-6    5.219699799019161E-5     -7.775018384019122E-5      -4.543934583494443E-6             1.423855755174723E-4
0.1300000000000001        0.009999999999999842     3.0144624703427576E-5    2.1518608738462327E-4    -3.2053045554416887E-4     -1.6331287323991493E-5            5.117978245522264E-4
0                         0.1399999999999999       7.761449690385599E-6     1.402446738953919E-7     1.2424049201440508         -0.4217338566374228               -596616.2409346562
0.010000000000000009      0.1399999999999999       3.1995494501179284E-5    0.0030098807583903682    0.01722200758114538        -5.000878875003704                1855.4616793009766
0.019999999999999962      0.1299999999999999       5.844754250052019E-5     0.0028710628141836326    0.0012798646307080122      -0.32763205488232927              64.34097154748162
0.02999999999999997       0.11999999999999977      8.099860264752071E-5     0.0026683071809450345    -6.282142161646888E-4      -0.06154388734270788              8.152914874025932
0.03999999999999995       0.10999999999999971      9.927398370320109E-5     0.002451360695876528     -0.0012300251104309275     -0.01814328414026878              1.811969168009977
0.04999999999999996       0.09999999999999976      1.1311767923352168E-4    0.0022276855952055355    -0.0015048309589277276     -0.006842398088836632             0.5485296279797254
0.06                      0.08999999999999991      1.2243071392623056E-4    0.002000099490896593     -0.0016310387857666744     -0.00300428940689515              0.20125111755757263
0.07                      0.08000000000000002      1.2714805674638604E-4    0.0017703984379006895    -0.0016604001448951708     -0.0014575648047684825            0.08389437867820693
0.08000000000000002       0.06999999999999995      1.272333140035918E-4     0.0015400379050133236    -0.0016146720361907337     -7.557673780509422E-4             0.03814803223013641
0.09000000000000005       0.05999999999999989      1.226773552781913E-4     0.001310309291682767     -0.0015065698751624236     -4.08702739398345E-4              0.018375419863881692
0.10000000000000006       0.04999999999999993      1.1349833181186663E-4    0.001082395469069893     -0.0013456774947071901     -2.2568489313406354E-4            0.009149637989113169
0.11000000000000007       0.03999999999999998      9.974309552993231E-5     8.573954965850142E-4     -0.0011403046272353288     -1.2441701024699936E-4            0.0045936363200071995
0.12000000000000008       0.029999999999999916     8.1492591339847E-5       6.363628575424441E-4     -8.979415115280963E-4      -6.636718190351949E-5             0.002249900455259357
0.13000000000000012       0.019999999999999796     5.8885215915057666E-5    4.2045389348131746E-4    -6.254579321383634E-4      -3.2277492798086886E-5            0.0010116747467523168
0.14                      0                        7.830811801930663E-6     5.14064372151509E-5      -8.022050820070343E-5      -3.399655177282069E-6             9.909038109036719E-5
0.14000000000000007       0.009999999999999842     3.2280190061139166E-5    2.1192672935290937E-4    -3.307075731299537E-4      -1.2219325815026813E-5            3.5619337600302503E-4
0                         0.14999999999999988      8.255367807093535E-6     1.2357517627355797E-7    1.3214904904099822         -0.4318719207929098               -634606.755657665
0.010000000000000009      0.14999999999999986      3.403178684217142E-5     0.003201450220236378     0.018320486230526872       -5.319781781524847                1973.54642364146
0.019999999999999962      0.13999999999999985      6.250867963202318E-5     0.0030706771789616506    0.0013851570686072567      -0.3503977534039253               68.81013581821355
0.02999999999999997       0.1299999999999999       8.717523261483833E-5     0.0028720306921053386    -6.549498383198564E-4      -0.06623285942745494              8.773856936442876
0.03999999999999995       0.11999999999999977      1.0763391047522366E-4    0.002658176531483385     -0.0013103231019368153     -0.01966828817448163              1.9642104946008416
0.04999999999999996       0.10999999999999971      1.2371637096534357E-4    0.002436923778130888     -0.0016224535411723511     -0.007481724467267192             0.599764773220917
0.06                      0.09999999999999976      1.3531227026098087E-4    0.0022111541971444903    -0.0017807578241752515     -0.0033193155173525113            0.22235048140677716
0.07                      0.08999999999999991      1.4234475785901546E-4    0.001982673271495218     -0.0018395401202745219     -0.0016311453007845506            0.09388605267557626
0.08000000000000002       0.08000000000000002      1.447648163477251E-4     0.0017529355658931682    -0.0018211192300816668     -8.595601446048651E-4             0.043388958800983035
0.09000000000000005       0.06999999999999995      1.425497085632285E-4     0.0015232316266381135    -0.0017381987941725262     -4.747651229656674E-4             0.021347530205373833
0.10000000000000006       0.05999999999999989      1.357026507779533E-4     0.0012947447239649284    -0.0016001129550179917     -2.698505145695973E-4             0.010941726367736049
0.11000000000000007       0.04999999999999993      1.2425317501353739E-4    0.0010685703521834478    -0.001414852250603448      -1.5512492406662137E-4            0.005728465298622365
0.12000000000000008       0.03999999999999998      1.0825873076816177E-4    8.457299809275857E-4     -0.0011896641031788162     -8.840332046048532E-5             0.0029975593747739726
0.13000000000000012       0.029999999999999916     8.781044470257458E-5     6.272069633215725E-4     -9.311533329639E-4         -4.8490885564023145E-5            0.0015201498796080237
0.14000000000000007       0.019999999999999796     6.305795254729887E-5     4.140930037621743E-4     -6.454625592536824E-4      -2.4152284140754703E-5            7.04146476902312E-4
0.15000000000000002       0                        8.3408069611751E-6       5.0592375961114176E-5    -8.246078602634631E-5      -2.5966936055671873E-6            7.07577103856577E-5
0.15000000000000002       0.009999999999999842     3.438267749387249E-5     2.0857056313678435E-4    -3.399391201664929E-4      -9.333785902740713E-6             2.5436151372446036E-4
0                         0.1599999999999999       8.738743224865463E-6     1.0884512012583276E-7    1.39888462514682           -0.44193907060146786              -671783.019837881
0.010000000000000009      0.15999999999999992      3.6024614327717846E-5    0.003388933674851405     0.019396566697468906       -5.631833037693862                2089.1063268253033
0.019999999999999962      0.1499999999999998       6.64879562945393E-5      0.00326627649502764      0.0014895821425426753      -0.3727022725076963               73.18870855609075
0.02999999999999997       0.1399999999999998       9.323469941997381E-5     0.003071910587333849     -6.792356121116915E-4      -0.07083199835816256              9.382876187333089
0.03999999999999995       0.12999999999999984      1.158452827685456E-4     0.0028613571967117425    -0.0013865076772589177     -0.021165643444508775             2.113681096934023
0.04999999999999996       0.11999999999999977      1.3413966714458716E-4    0.002642765475914844     -0.001734768930595907      -0.008110072628224163             0.65011566881833
0.06                      0.10999999999999976      1.47996815190915E-4      0.002419079235051601     -0.0019243294089759354     -0.003629229187348121             0.24310571892948563
0.07                      0.09999999999999976      1.5732879456989847E-4    0.002192110790861598     -0.0020120506419149054     -0.0018020865730773022            0.10372537054742148
0.08000000000000002       0.08999999999999991      1.6207477852021082E-4    0.0019633107468098716    -0.0020207871439811313     -9.618918216625083E-4             0.04855621938357846
0.09000000000000005       0.08000000000000002      1.6219938074823545E-4    0.001733966596003735     -0.001963204171717546      -5.399725920637796E-4             0.024281502706527514