% Model:              Possion.mph
% Version:            COMSOL 6.3.0.290
% Date:               Apr 7 2025, 14:24
% Dimension:          2
% Nodes:              10201
% Expressions:        5
%
% Length unit:        m
% X                       Y                        u (1)                    ux (1/m)                 uxx (1/m^2)              uy (1/m)                 uyy (1/m^2)
0                         0                        0                        0                        0                        0                        0
0.010000000000000009      0                        0                        0                        0                        0.029294288551555796     -0.7057299197288618
0                         0.009999999999999993     0                        0.029297890915820576     -0.7064503925818244      0                        0
0.010000000000000009      0.009999999999999898     2.5765638952911257E-4    0.022312363844243982     -0.54267435629875        0.02231596618609275      -0.5412334147978326
0                         0.019999999999999987     0                        0.05050470692147496      -0.8455618999958665      0                        0
0.010000000000000009      0.01999999999999985      4.6276897421495416E-4    0.04207875533821451      -0.7201320262093178      0.01866223717264727      -0.309404974090965
0.020000000000000018      0                        0                        0                        0                        0.05048309236035849      -0.8441208618078577
0.019999999999999962      0.009999999999999842     4.6262488051318425E-4    0.018637021132848305     -0.31228709247786923     0.04207155145039119      -0.7172502104565902
0                         0.02999999999999998      0                        0.06824518641760331      -0.8963507523278144      0                        0
0.010000000000000009      0.02999999999999997      6.376343265596427E-4     0.059293623661142436     -0.8027054584506251      0.016289650374658692     -0.20874346357540308
0.019999999999999962      0.01999999999999985      8.541180941429435E-4     0.036187377064157866     -0.5147012938910798      0.03622339931143474      -0.5089382004184912
0.02999999999999997       0                        0                        0                        0                        0.0681767357901411       -0.894188459230886
0.02999999999999997       0.009999999999999842     6.370579349398571E-4     0.016228407863073467     -0.2130682388878249      0.059246797242781965     -0.7983818942743834
0                         0.03999999999999997      0                        0.08380164739361774      -0.9224306950815027      0                        0
0.010000000000000009      0.03999999999999998      7.918949391821031E-4     0.07458300302021095      -0.8493683136027068      0.01455513899865819      -0.1559403385451672
0.019999999999999962      0.02999999999999997      0.0011952370026105654    0.052229641298957366     -0.6365751503508277      0.03198977428789017      -0.37696965521822356
0.02999999999999997       0.019999999999999796     0.0011945166013512761    0.03188171800670573      -0.38561496608690093     0.05224766605575147      -0.6279313502563042
0.03999999999999998       0                        0                        0                        0                        0.08364310428343931      -0.9195448490900718
0.03999999999999995       0.009999999999999842     7.904538003798776E-4     0.014443434122579632     -0.16171251881455717     0.07445332164913085      -0.8435991668730352
0                         0.04999999999999997      0                        0.09776021527613848      -0.9383538239905607      0                        0
0.010000000000000009      0.04999999999999993      9.30684461561857E-4      0.0883797493376129       -0.8791008260452774      0.013199869181116385     -0.12374252859559753
0.019999999999999962      0.03999999999999998      0.001498966298552096     0.0668339196679173       -0.7141671502566815      0.02874943447745914      -0.29349652483440636
0.02999999999999997       0.029999999999999916     0.0016894756539610467    0.04661521281757801      -0.511794999250707       0.046741266568551806     -0.4988345911462573
0.03999999999999998       0.019999999999999796     0.0014966610012043051    0.028540515280708854     -0.3050304995518136      0.06679077124258354      -0.7026380104727629
0.04999999999999999       0                        0                        0                        0                        0.09745383763161096      -0.9347389904508381
0.04999999999999996       0.009999999999999842     9.278014267935535E-4     0.013023198291418459     -0.13097318891111343     0.08810952668174722      -0.8718762598829629
0                         0.05999999999999997      0                        0.11046202138288123      -0.949109301169548       0                        0
0.010000000000000009      0.05999999999999989      0.001057164748770335     0.10097277055895826      -0.8996372240127236      0.012094855721328252     -0.10205432024432248
0.019999999999999962      0.04999999999999993      0.0017735202865467843    0.08018932542077153      -0.7668200072918907      0.026157829080386753     -0.23775319361387304
0.029999999999999943      0.03999999999999998      0.0021347872107271666    0.06033006360832596      -0.6024684091693047      0.04231750616123646      -0.4049020623746502
0.03999999999999995       0.029999999999999916     0.0021327707726498746    0.04204027703557468      -0.42218117465070293     0.06043098310386594      -0.5851935026995821
0.04999999999999996       0.019999999999999796     0.0017684768066917123    0.02581911823107514      -0.2521938468102931      0.08002746395212157      -0.7523899532270946
0.06                      0                        0                        0                        0                        0.10993546314452717      -0.944754832975363
0.06                      0.009999999999999842     0.0010521168897964877    0.011838566982578791     -0.11076502059436777     0.10048976880381139      -0.8909372800004078
0                         0.06999999999999997      0                        0.12213215669802184      -0.9568719224514952      0                        0
0.010000000000000009      0.06999999999999995      0.0011734779708576443    0.11256462768373597      -0.9146540143015105      0.011167097034759169     -0.08643333179993284
0.019999999999999962      0.05999999999999989      0.0020244026188948445    0.09247613204365521      -0.8045382852571237      0.024016726669030215     -0.19836056064044527
0.02999999999999997       0.04999999999999993      0.0025397737520580924    0.0730618827886935       -0.6687763833069127      0.03867716123895812      -0.336225910681644
0.03999999999999995       0.03999999999999998      0.002710523566640629     0.05481578299913342      -0.514515677488113       0.055118146364333875     -0.4915062420917806
0.04999999999999996       0.029999999999999916     0.002534013063444789     0.03820554898323987      -0.3578405349680942      0.07308030395451245      -0.6471737553994359
0.06                      0.019999999999999796     0.002015177131373701     0.023519045926624217     -0.2157456570552725      0.09212361765529124      -0.7871726809417758
0.07                      0                        0                        0                        0                        0.12129824230184982      -0.9517592665983443
0.07                      0.009999999999999842     0.0011653944596885634    0.010816262827674145     -0.09666151665728151     0.1117818590553781       -0.9044432911556228
0                         0.07999999999999995      0                        0.13293094648400391      -0.9627414279860884      0                        0
0.010000000000000009      0.08000000000000002      0.0012811723934407367    0.12330434655058306      -0.9261027359673748      0.010371394260463587     -0.07463867272069535
0.019999999999999962      0.06999999999999995      0.0022555143444897147    0.10384358513172043      -0.8327503474126701      0.022204528362356195     -0.16918917430159652
0.02999999999999997       0.05999999999999989      0.002911250075803312     0.08489397831940407      -0.7185912060863657      0.035616354752085466     -0.2848554850504641
0.03999999999999995       0.04999999999999993      0.0032392595226383406    0.0668348725551702       -0.5867673694579736      0.0506274967644294       -0.41784096396484927
0.04999999999999996       0.03999999999999998      0.003234942147955939     0.050066395149348686     -0.4465885690867992      0.06710511062649094      -0.5580286511188461
0.06                      0.029999999999999916     0.002899583947510685     0.034906892841421386     -0.3108491333028063      0.08475836979076021      -0.692621874530996
0.07                      0.019999999999999796     0.0022403687786518097    0.021518207790664358     -0.18958676188859158     0.10321395917720713      -0.8123850956026857
0.08000000000000002       0                        0                        0                        0                        0.13168728373302274      -0.9568406765992421
0.08000000000000002       0.009999999999999842     0.0012690308035002461    0.009910623142419209     -0.08644459204053234     0.12211972083154568      -0.9143236101476493
0                         0.08999999999999993      0                        0.14297862975148526      -0.9673335903046332      0                        0
0.010000000000000009      0.08999999999999991      0.0013814196179996218    0.13330587675360622      -0.9351094711818071      0.00967781085143183      -0.06541993670770907
0.019999999999999962      0.08000000000000002      0.002469750800213529     0.11441201471108763      -0.8545803421264964      0.020642105012458223     -0.14677801113078104
0.02999999999999997       0.06999999999999995      0.0032543182493659324    0.09591775270951297      -0.7570383603194983      0.03299614535668596      -0.2454007133124918
0.03999999999999995       0.05999999999999989      0.0037263142070401213    0.0781188816718974       -0.643718904020389       0.046782166545060844     -0.35974223309727904
0.04999999999999996       0.04999999999999993      0.0038801705242287048    0.06134656740581704      -0.5198770121187266      0.06193979430954544      -0.48402733313969293
0.06                      0.03999999999999998      0.003714804903221632     0.04590489873376974      -0.3942621371077024      0.07828585415896544      -0.6092225668898692
0.07                      0.029999999999999916     0.003234147865243735     0.0320047761377379       -0.27585881483888386     0.09554242588561504      -0.7266225167815321
0.08000000000000002       0.019999999999999796     0.002446646123276047     0.01973662332272126      -0.1702997830551034      0.11340404881304579      -0.8311087698945485
0.09000000000000002       0                        0                        0                        0                        0.14120699092794853      -0.96059902862232
0.09000000000000005       0.009999999999999842     0.0013640399578483486    0.009090982221408861     -0.0788955894291199      0.13160162718009216      -0.9216733956352403
0                         0.09999999999999994      0                        0.15236877337241478      -0.9710202317236811      0                        0
0.010000000000000009      0.09999999999999987      0.0014751367221379646    0.14265900367481982      -0.9423679665550254      0.009065455345159117     -0.05802425319352267
0.019999999999999962      0.08999999999999991      0.002669339946984402     0.12427869534887406      -0.8719289206257166      0.019275306854304453     -0.12905936153912023
0.02999999999999997       0.08000000000000002      0.003572901057844702     0.10621850066158368      -0.7874314317831335      0.0307196704663365       -0.21434486995822466
0.03999999999999995       0.06999999999999995      0.004177472021515405     0.08871319532528821      -0.6891988148132953      0.0434484422373293       -0.313407728232761
0.04999999999999996       0.05999999999999989      0.004477082917690662     0.07203455423309485      -0.5801479268473742      0.05744187979069859      -0.423024822259336
0.06                      0.04999999999999993      0.004469180585421399     0.056454657935927854     -0.46599087534806927     0.07258896739282578      -0.5371977206580425
0.07                      0.03999999999999998      0.004155319332235221     0.042197057167249225     -0.35378394269898195     0.08869206434145088      -0.6488678592220225
0.08000000000000002       0.029999999999999916     0.003541181557141319     0.029401244224890558     -0.24941373525824417     0.10550352052369097      -0.7524297695558602
0.09000000000000005       0.019999999999999796     0.002635925106900524     0.018118783165421107     -0.15587772271339517     0.12277594753254985      -0.8451851394043501
0.10000000000000003       0                        0                        0                        0                        0.1499341535897383       -0.9633844603839219
0.10000000000000006       0.009999999999999842     0.0014511723128781651    0.008335353698110726     -0.07330520841664878     0.14030080450714158      -0.9271440535684352
0                         0.10999999999999993      0                        0.16117621553008118      -0.9740394743036345      0                        0
0.010000000000000009      0.10999999999999988      0.0015630601815856309    0.15143615144195557      -0.9483288353576428      0.008519132175978501     -0.051970545614228314
0.019999999999999962      0.09999999999999976      0.002856045300013255     0.13352309844186866      -0.8860105361933108      0.018065486837653813     -0.11473164444043249
0.029999999999999943      0.08999999999999991      0.0038700891681204223    0.11587152666065102      -0.8119511141913875      0.028717449072677925     -0.18937809371677924
0.03999999999999995       0.08000000000000002      0.004597347334297316     0.09867099151545142      -0.726042454619396       0.040525926897347714     -0.2759443207750536
0.04999999999999996       0.06999999999999995      0.005031763487586888     0.08214503151751551      -0.6298654475632333      0.05349353219823866      -0.37267411319173505
0.06                      0.05999999999999989      0.005169907180969921     0.06652986092893165      -0.5270645876819486      0.06755589654097854      -0.4757070153946046
0.07                      0.04999999999999993      0.005011662581957614     0.05204106614641035      -0.4228157051543775      0.0825765131413933       -0.5797637018248452
0.08000000000000002       0.03999999999999998      0.004560514656403606     0.03884134792777924      -0.32233431695222237     0.0983633452551897       -0.6797279018835667
0.09000000000000005       0.029999999999999916     0.0038233151708237335    0.027025013801977        -0.2292886601963886      0.11470247222826793      -0.7721415955346913
0.10000000000000006       0.019999999999999796     0.0028096401308243513    0.01662398173109232      -0.14510198475747416     0.13139320148758551      -0.8557478770031821
0.11000000000000004       0                        0                        0                        0                        0.15792544749474163      -0.9654053997065031
0.11000000000000007       0.009999999999999842     0.0015309842049620684    0.007626947291493741     -0.06925207093003749     0.14827181355566205      -0.9311284000577648
0                         0.11999999999999991      0                        0.16946208415912523      -0.9765512371723057      0                        0
0.010000000000000009      0.12                     0.0016457932797326383    0.15969683065957457      -0.9532978604766346      0.008027414271491826     -0.0469362918459062
0.019999999999999962      0.10999999999999976      0.003031294092733703     0.1422109324358446       -0.8976350178499893      0.016984080885838762     -0.10293722316799148
0.02999999999999997       0.09999999999999976      0.004148369207494638     0.12494198980320023      -0.8320703628310042      0.026938210769339103     -0.16894876523816071
0.03999999999999995       0.08999999999999991      0.0049896726176975265    0.10804539636864333      -0.7563014267897401      0.037938627440809114     -0.2452366006164107
0.04999999999999996       0.08000000000000002      0.005549233265017985     0.09170624568269894      -0.6711452008991543      0.04999985485489217      -0.3308836590801434
0.06                      0.06999999999999995      0.005823124656875532     0.07612699213293639      -0.5788978537451044      0.06308712822268031      -0.42344709869364294
0.07                      0.05999999999999989      0.0058100865809179395    0.06150557648106375      -0.483219145935081       0.07710805988322017      -0.5191507933201791
0.08000000000000002       0.04999999999999993      0.005511920526358627     0.048009991656979334     -0.38834100741877364     0.09191787740833551      -0.6137612052790757
0.09000000000000005       0.03999999999999998      0.004933522643528492     0.03575979252384126      -0.29789999962066815     0.10733927202189014      -0.7037541189068008
0.10000000000000006       0.029999999999999916     0.004082551919604859     0.02482203876641277      -0.21404692420153282     0.12318950592112249      -0.7871187409626828
0.11000000000000007       0.019999999999999796     0.0029688639710780825    0.015220646097713425     -0.13722789433435878     0.13930452050804643      -0.8634972183643086
0.12000000000000005       0                        0                        0                        0                        0.1652218436819866       -0.9667807502929189
0.12000000000000008       0.009999999999999842     0.0016038793993051956    0.006952056163951184     -0.06649617884743719     0.1555544215012813       -0.9338527278966751
0                         0.1299999999999999       0                        0.17727713399123673      -0.9786672319034082      0                        0
0.010000000000000009      0.1299999999999999       0.0017238379783171987    0.1674906683951678       -0.9574903356085045      0.007581472446063255     -0.042696502688567506
0.019999999999999962      0.11999999999999983      0.0031962619508610506    0.15039714345360156      -0.9073627817995612      0.01600935481519164      -0.09308820690479536
0.029999999999999943      0.10999999999999976      0.00440977714815868      0.13348592885051175      -0.8488122039521147      0.025343129650533005     -0.15198593374836106
0.03999999999999998       0.09999999999999976      0.005357508596894188     0.11688610031411079      -0.7814603533061728      0.035628201148198785     -0.21974953664884742
0.04999999999999996       0.08999999999999991      0.006033659926733347     0.10075216840804666      -0.7056867084865246      0.04688503127064561      -0.29594200377876234
0.06                      0.08000000000000002      0.006434049596459069     0.08525694720571655      -0.6229239306527745      0.05909743225864128      -0.37903534433453956
0.07                      0.06999999999999995      0.0065566480846176185    0.07057742916309706      -0.535710398579738       0.07220394880548708      -0.46639343714920756
0.08000000000000002       0.05999999999999989      0.006401996810117245     0.056876081063730266     -0.44731305879972183     0.08609729124274323      -0.5547063491243875
0.09000000000000005       0.04999999999999993      0.0059733912668617425    0.0442837601125422       -0.36096835943293115     0.10063455781058261      -0.6407784465057915
0.10000000000000006       0.03999999999999998      0.0052767775858759015    0.03289088887845737      -0.2790836211524237      0.11565586550920359      -0.7222962561260715
0.11000000000000007       0.029999999999999916     0.00432041003332748      0.022749404778951723     -0.20277241146592928     0.13100500281262378      -0.7982335101355176
0.12000000000000008       0.019999999999999796     0.00311438123226522      0.0138827403661958       -0.13182232190940368     0.14654629603641317      -0.86884411301547
0.13                      0                        0                        0                        0                        0.17185110055296296      -0.9675645735481563
0.1300000000000001        0.009999999999999842     0.0016701327768521969    0.0062986206045818754    -0.06492865185330743     0.1621758410229941       -0.9354212165676964
0                         0.1399999999999999       0                        0.18466406025588955      -0.9804681258198329      0                        0
0.010000000000000009      0.1399999999999999       0.0017976171962679054    0.17485954680058052      -0.9610626800922455      0.007174331688131606     -0.03908889053507281
0.019999999999999962      0.1299999999999999       0.00335193105753284      0.15812814131612496      -0.9155943760546492      0.015124366868285125     -0.08476759837567727
0.02999999999999997       0.11999999999999977      0.004656004319002802     0.14155153575650606      -0.8629067246065822      0.02390212362663982      -0.13772984603228008
0.03999999999999995       0.10999999999999971      0.005703396633277556     0.1252381550259025       -0.8026050430843199      0.03354913369842932      -0.19836130399267948
0.04999999999999996       0.09999999999999976      0.006488528713912407     0.10931804420751917      -0.7348190224095106      0.04408837930980808      -0.2664988859596491
0.06                      0.08999999999999991      0.007007114626448729     0.09393877578041324      -0.6604318076745983      0.05551520820652597      -0.3411985662397541
0.07                      0.08000000000000002      0.007256616987649187     0.07925639073110233      -0.5811873879811742      0.06778952983558212      -0.42064302590139846
0.08000000000000002       0.06999999999999995      0.007236647231282018     0.06542213780331119      -0.4995381483796564      0.08083262545547781      -0.5023278723930957
0.09000000000000005       0.05999999999999989      0.006949220711380036     0.05256838546334591      -0.4181912395259815      0.09453132266862341      -0.5835457868558365
0.10000000000000006       0.04999999999999993      0.006398804141643518     0.040798533065319054     -0.3394984829568415      0.10874957395426033      -0.6619958659507148
0.11000000000000007       0.03999999999999998      0.005592154979948992     0.03018439707220988      -0.26494617773860796     0.12334421039273957      -0.7362613679572689
0.12000000000000008       0.029999999999999916     0.004538013379281965     0.020771176809454547     -0.19491443856111346     0.13818042256148705      -0.8060132273790899
0.13000000000000012       0.019999999999999796     0.0032467311561578944    0.012587244135898665     -0.1286835146497225      0.15314418405488206      -0.8719824119959498
0.14                      0                        0                        0                        0                        0.1778288837552966       -0.967754441355993
0.14000000000000007       0.009999999999999842     0.00172990111548514      0.005655088100309014     -0.06455476436685359     0.1681517648925481       -0.9358312403325966
0                         0.14999999999999988      0                        0.19165915974065667      -0.9820138345078623      0                        0
0.010000000000000009      0.14999999999999986      0.0018674909056811753    0.18183915947308912      -0.9641316387517495      0.006800380120338699     -0.03599302294708906
0.019999999999999962      0.13999999999999985      0.003499131480584362     0.1654434688951037       -0.9226242615905184      0.014315642833750739     -0.07767072650426599
0.02999999999999997       0.1299999999999999       0.004888472710965589     0.14918035966013987      -0.8748883384261121      0.02259141953644428      -0.12562732613420735
0.03999999999999995       0.11999999999999977      0.006029470101512326     0.13314178277904098      -0.8205418041319064      0.031665354478854046     -0.18024074431761505
0.04999999999999996       0.10999999999999971      0.00691677700122989      0.1174380410226088       -0.7595736160632361      0.04156100824106018      -0.24150247919254753
0.06                      0.09999999999999976      0.007546096113998678     0.10219548135327347      -0.6925176197206753      0.05228078571659264      -0.3088400011676242
0.07                      0.08999999999999991      0.007914562291832548     0.08755069780240035      -0.6205670897686701      0.06379924793500452      -0.3810079014345149
0.08000000000000002       0.08000000000000002      0.008021106286831413     0.07364130506272223      -0.5455362544257696      0.07605898207941397      -0.4561448770861034
0.09000000000000005       0.06999999999999995      0.007866734074559307     0.06059499974092808      -0.46960851631178        0.08897126352917623      -0.5320487981518056
0.10000000000000006       0.05999999999999989      0.0074546641921240525    0.04852007338486414      -0.3949132488938858      0.10242247038966867      -0.6066105343711286
0.11000000000000007       0.04999999999999993      0.0067903005027816895    0.03750055327988905      -0.3230766557535105      0.11628502846840749      -0.6782511911279698
0.12000000000000008       0.03999999999999998      0.005881064712810125     0.027597449750840775     -0.2548985765545808      0.13043005575605388      -0.7462197247775464
0.13000000000000012       0.029999999999999916     0.004736146002708977     0.018855341828068764     -0.19020521367598775     0.14473906873914022      -0.8107167778700557
0.14000000000000007       0.019999999999999796     0.003366227617953266     0.011312118025672516     -0.12781289818982344     0.15911391271426817      -0.8729146856198957
0.15000000000000002       0                        0                        0                        0                        0.1831586951703429       -0.9672865636937331
0.15000000000000002       0.009999999999999842     0.001783222623518715     0.005009307335758106     -0.06550391465357563     0.17348634523247408      -0.9349648567155875
0                         0.1599999999999999       0                        0.1982935588983663       -0.9833499430306567      0                        0
0.010000000000000009      0.15999999999999992      0.0019337680918321324    0.1884601743900995       -0.9667863789768679      0.006455033720719226     -0.0333173381639682
0.019999999999999962      0.1499999999999998       0.0036385714090373866    0.1723770728444565       -0.9286742807861652      0.01357228531579184      -0.07156920513732246
0.02999999999999997       0.1399999999999998       0.005108389871447387     0.15640835145380716      -0.8851573827046011      0.021391909317306446     -0.11526589418193822
0.03999999999999995       0.12999999999999984      0.006337536948172586     0.14063262739808852      -0.8358795361560868      0.029947857267375144     -0.1647619570196639
0.04999999999999996       0.11999999999999977      0.007320899031109923     0.12514411902136302      -0.7807528382766407      0.03926318629819553      -0.22013381019328904
0.06                      0.10999999999999976      0.008054223843878688     0.11005139282049632      -0.7200889869133049      0.04934451132955284      -0.2810451560958853
0.07                      0.09999999999999976      0.008534441848292655     0.09547365606936761      -0.6547031658581517      0.06017641117586475      -0.34664473144016483
0.08000000000000002       0.08999999999999991      0.008759988204796402     0.08153439185253217      -0.5859292686439943      0.07171719019916548      -0.415560731397008
0.09000000000000005       0.08000000000000002      0.008731079326508878     0.06835314294948672      -0.5154922721760187      0.08389765398569521      -0.48604400847088414
0.10000000000000006       0.06999999999999995      0.008449896955431904     0.05603738929456431      -0.44523439832244094     0.09662404483949455      -0.5562542991516466
0.11000000000000007       0.05999999999999989      0.007920650305400644     0.044676983591736        -0.3767646925153656      0.10978498555041483      -0.6246103390106725
0.12000000000000008       0.04999999999999993      0.0071495188153480665    0.03434300611707347      -0.3111386543053527      0.1232608954000935       -0.6900967907141933
0.13000000000000012       0.03999999999999998      0.006144509549594187     0.02509150199730681      -0.24863710232129677     0.1369338429408174       -0.7524670349766183
0.1400000000000001        0.029999999999999916     0.004915278705139445     0.016971278206611123     -0.18862858823380435     0.15069659799764704      -0.8123638554807926
0.15000000000000008       0.019999999999999796     0.0034729590753472604    0.010034333736164566     -0.12942994325145918     0.1644613867604087       -0.8714393361132784
0.16000000000000003       0                        0                        0                        0                        0.18783050081110989      -0.9660149119956003
0.16000000000000003       0.009999999999999842     0.0018300042625112904    0.004347196969083533     -0.06807224486967556     0.17817103618219068      -0.9325518534886181
0                         0.1699999999999999       0                        0.20459414479724142      -0.9845118511199022      0                        0
0.010000000000000009      0.16999999999999998      0.0019967158554164213    0.19474912286490387      -0.9690963620388018      0.0061345004922777335    -0.030990774246610897
0.019999999999999962      0.15999999999999992      0.0037708598442073617    0.17895828628297136      -0.9339151533651204      0.012885356687265134     -0.06628799783081263
0.02999999999999997       0.1499999999999998       0.005316789878791244     0.16326674068937302      -0.8940200385570733      0.020288011850831678     -0.10633132755338173